
#(C) 2022 by FIZ Karlsruhe - Leibniz Institute for Information Infrastructure.  All rights reserved.
data_14175-ICSD
_database_code_ICSD 14175
_audit_creation_date 1980-12-31
_audit_update_record 2013-02-01
_chemical_name_common 'Barium trithiotitanate'
_chemical_formula_structural 'Ba (Ti S3)'
_chemical_formula_sum 'Ba1 S3 Ti1'
_chemical_name_structure_type BaNiO3
_exptl_crystal_density_diffrn 4.08
_citation_title 'Die Kristallstruktur von Ba Ti S3'
loop_
_citation_id
_citation_journal_full
_citation_year
_citation_journal_volume
_citation_page_first
_citation_page_last
_citation_journal_id_ASTM
primary

;
Zeitschrift fuer Naturforschung, Teil B: Anorganische Chemie, Organische
Chemie
; 1980 35 775 775 ZNBAD2
loop_
_citation_author_citation_id
_citation_author_name
primary 'Huster, J.'
_cell_length_a 6.756(1)
_cell_length_b 6.756(1)
_cell_length_c 5.798(1)
_cell_angle_alpha 90.
_cell_angle_beta 90.
_cell_angle_gamma 120.
_cell_volume 229.19
_cell_formula_units_Z 2
_space_group_name_H-M_alt 'P 63/m m c'
_space_group_IT_number 194
loop_
_space_group_symop_id
_space_group_symop_operation_xyz
1 'x, x-y, -z+1/2'
2 '-x+y, y, -z+1/2'
3 '-y, -x, -z+1/2'
4 '-x+y, -x, -z+1/2'
5 '-y, x-y, -z+1/2'
6 'x, y, -z+1/2'
7 '-x, -x+y, z+1/2'
8 'x-y, -y, z+1/2'
9 'y, x, z+1/2'
10 'x-y, x, z+1/2'
11 'y, -x+y, z+1/2'
12 '-x, -y, z+1/2'
13 '-x, -x+y, -z'
14 'x-y, -y, -z'
15 'y, x, -z'
16 'x-y, x, -z'
17 'y, -x+y, -z'
18 '-x, -y, -z'
19 'x, x-y, z'
20 '-x+y, y, z'
21 '-y, -x, z'
22 '-x+y, -x, z'
23 '-y, x-y, z'
24 'x, y, z'
loop_
_atom_type_symbol
_atom_type_oxidation_number
Ti4+ 4
Ba2+ 2
S2- -2
loop_
_atom_site_label
_atom_site_type_symbol
_atom_site_symmetry_multiplicity
_atom_site_Wyckoff_symbol
_atom_site_fract_x
_atom_site_fract_y
_atom_site_fract_z
_atom_site_B_iso_or_equiv
_atom_site_occupancy
Ti1 Ti4+ 2 a 0 0 0 . 1.
Ba1 Ba2+ 2 d 0.3333 0.6667 0.75 . 1.
S1 S2- 6 h 0.1655(10) 0.331(2) 0.25 . 1.
loop_
_atom_site_aniso_label
_atom_site_aniso_type_symbol
_atom_site_aniso_U_11
_atom_site_aniso_U_22
_atom_site_aniso_U_33
_atom_site_aniso_U_12
_atom_site_aniso_U_13
_atom_site_aniso_U_23
Ti1 Ti4+ 0.031(3) 0.031(3) 0.176(9) 0.0155 0 0
Ba1 Ba2+ 0.0186(5) 0.0186(5) 0.0430(8) 0.0093 0 0
S1 S2- 0.018(1) 0.012(1) 0.090(3) 0.009 0 0
#End of TTdata_14175-ICSD